 VARIABLES = "X", "Y", "U", "V", "P"
 ZONE I=         100 , J=         100 , DATAPACKING=BLOCK, VARLOCATION=([3-5]=CELLCENTERED)
   0.0000000000000000E+00   0.5050505278632045E-03   0.1515151583589613E-02   0.2525252755731344E-02   0.3535353578627110E-02   0.4545454867184162E-02   0.5555556155741215E-02   0.6565656978636980E-02   0.7575757801532745E-02   0.8585859090089798E-02   0.9595960378646851E-02   0.1060606166720390E-01   0.1161616202443838E-01   0.1262626331299543E-01   0.1363636460155249E-01   0.1464646495878696E-01   0.1565656624734402E-01   0.1666666753590107E-01   0.1767676882445812E-01   0.1868687011301517E-01   0.1969697140157223E-01   0.2070707269012928E-01   0.2171717211604118E-01   0.2272727340459824E-01   0.2373737469315529E-01   0.2474747598171234E-01   0.2575757727026939E-01   0.2676767855882645E-01   0.2777777984738350E-01   0.2878787927329540E-01   0.2979798056185246E-01   0.3080808185040951E-01   0.3181818127632141E-01   0.3282828256487846E-01   0.3383838385343552E-01   0.3484848514199257E-01   0.3585858643054962E-01   0.3686868771910667E-01   0.3787878900766373E-01   0.3888889029622078E-01   0.3989899158477783E-01   0.4090909287333488E-01   0.4191919043660164E-01   0.4292929172515869E-01   0.4393939301371574E-01   0.4494949430227280E-01   0.4595959559082985E-01   0.4696969687938690E-01   0.4797979816794395E-01   0.4898989945650101E-01   0.5000000074505806E-01   0.5101010203361511E-01   0.5202020332217216E-01   0.5303030461072922E-01   0.5404040589928627E-01   0.5505050718784332E-01   0.5606060847640038E-01   0.5707070603966713E-01   0.5808080732822418E-01   0.5909090861678123E-01   0.6010100990533829E-01   0.6111111119389534E-01   0.6212121248245239E-01   0.6313131749629974E-01   0.6414142251014709E-01   0.6515152007341385E-01   0.6616161763668060E-01   0.6717172265052795E-01   0.6818182021379471E-01   0.6919192522764206E-01   0.7020202279090881E-01   0.7121212780475616E-01   0.7222222536802292E-01   0.7323233038187027E-01   0.7424242794513702E-01   0.7525253295898438E-01   0.7626263052225113E-01   0.7727273553609848E-01   0.7828283309936523E-01   0.7929293811321259E-01   0.8030303567647934E-01   0.8131314069032669E-01   0.8232323825359344E-01   0.8333333581686020E-01   0.8434344083070755E-01   0.8535353839397430E-01   0.8636364340782166E-01   0.8737374097108841E-01   0.8838384598493576E-01   0.8939394354820251E-01   0.9040404856204987E-01   0.9141414612531662E-01   0.9242425113916397E-01   0.9343434870243073E-01   0.9444445371627808E-01   0.9545455127954483E-01   0.9646465629339218E-01   0.9747475385665894E-01   0.9848485141992569E-01   0.9949495643377304E-01
   0.1005050539970398E+00  -0.5050505278632045E-03   0.5050505278632045E-03   0.1515151583589613E-02   0.2525252755731344E-02   0.3535353578627110E-02   0.4545454867184162E-02   0.5555556155741215E-02   0.6565656978636980E-02   0.7575757801532745E-02   0.8585859090089798E-02   0.9595960378646851E-02   0.1060606166720390E-01   0.1161616202443838E-01   0.1262626331299543E-01   0.1363636460155249E-01   0.1464646495878696E-01   0.1565656624734402E-01   0.1666666753590107E-01   0.1767676882445812E-01   0.1868687011301517E-01   0.1969697140157223E-01   0.2070707269012928E-01   0.2171717211604118E-01   0.2272727340459824E-01   0.2373737469315529E-01   0.2474747598171234E-01   0.2575757727026939E-01   0.2676767855882645E-01   0.2777777984738350E-01   0.2878787927329540E-01   0.2979798056185246E-01   0.3080808185040951E-01   0.3181818127632141E-01   0.3282828256487846E-01   0.3383838385343552E-01   0.3484848514199257E-01   0.3585858643054962E-01   0.3686868771910667E-01   0.3787878900766373E-01   0.3888889029622078E-01   0.3989899158477783E-01   0.4090909287333488E-01   0.4191919043660164E-01   0.4292929172515869E-01   0.4393939301371574E-01   0.4494949430227280E-01   0.4595959559082985E-01   0.4696969687938690E-01   0.4797979816794395E-01   0.4898989945650101E-01   0.5000000074505806E-01   0.5101010203361511E-01   0.5202020332217216E-01   0.5303030461072922E-01   0.5404040589928627E-01   0.5505050718784332E-01   0.5606060847640038E-01   0.5707070603966713E-01   0.5808080732822418E-01   0.5909090861678123E-01   0.6010100990533829E-01   0.6111111119389534E-01   0.6212121248245239E-01   0.6313131749629974E-01   0.6414142251014709E-01   0.6515152007341385E-01   0.6616161763668060E-01   0.6717172265052795E-01   0.6818182021379471E-01   0.6919192522764206E-01   0.7020202279090881E-01   0.7121212780475616E-01   0.7222222536802292E-01   0.7323233038187027E-01   0.7424242794513702E-01   0.7525253295898438E-01   0.7626263052225113E-01   0.7727273553609848E-01   0.7828283309936523E-01   0.7929293811321259E-01   0.8030303567647934E-01   0.8131314069032669E-01   0.8232323825359344E-01   0.8333333581686020E-01   0.8434344083070755E-01   0.8535353839397430E-01   0.8636364340782166E-01   0.8737374097108841E-01   0.8838384598493576E-01   0.8939394354820251E-01   0.9040404856204987E-01   0.9141414612531662E-01   0.9242425113916397E-01   0.9343434870243073E-01   0.9444445371627808E-01   0.9545455127954483E-01   0.9646465629339218E-01   0.9747475385665894E-01   0.9848485141992569E-01
   0.9949495643377304E-01   0.1005050539970398E+00  -0.5050505278632045E-03   0.5050505278632045E-03   0.1515151583589613E-02   0.2525252755731344E-02   0.3535353578627110E-02   0.4545454867184162E-02   0.5555556155741215E-02   0.6565656978636980E-02   0.7575757801532745E-02   0.8585859090089798E-02   0.9595960378646851E-02   0.1060606166720390E-01   0.1161616202443838E-01   0.1262626331299543E-01   0.1363636460155249E-01   0.1464646495878696E-01   0.1565656624734402E-01   0.1666666753590107E-01   0.1767676882445812E-01   0.1868687011301517E-01   0.1969697140157223E-01   0.2070707269012928E-01   0.2171717211604118E-01   0.2272727340459824E-01   0.2373737469315529E-01   0.2474747598171234E-01   0.2575757727026939E-01   0.2676767855882645E-01   0.2777777984738350E-01   0.2878787927329540E-01   0.2979798056185246E-01   0.3080808185040951E-01   0.3181818127632141E-01   0.3282828256487846E-01   0.3383838385343552E-01   0.3484848514199257E-01   0.3585858643054962E-01   0.3686868771910667E-01   0.3787878900766373E-01   0.3888889029622078E-01   0.3989899158477783E-01   0.4090909287333488E-01   0.4191919043660164E-01   0.4292929172515869E-01   0.4393939301371574E-01   0.4494949430227280E-01   0.4595959559082985E-01   0.4696969687938690E-01   0.4797979816794395E-01   0.4898989945650101E-01   0.5000000074505806E-01   0.5101010203361511E-01   0.5202020332217216E-01   0.5303030461072922E-01   0.5404040589928627E-01   0.5505050718784332E-01   0.5606060847640038E-01   0.5707070603966713E-01   0.5808080732822418E-01   0.5909090861678123E-01   0.6010100990533829E-01   0.6111111119389534E-01   0.6212121248245239E-01   0.6313131749629974E-01   0.6414142251014709E-01   0.6515152007341385E-01   0.6616161763668060E-01   0.6717172265052795E-01   0.6818182021379471E-01   0.6919192522764206E-01   0.7020202279090881E-01   0.7121212780475616E-01   0.7222222536802292E-01   0.7323233038187027E-01   0.7424242794513702E-01   0.7525253295898438E-01   0.7626263052225113E-01   0.7727273553609848E-01   0.7828283309936523E-01   0.7929293811321259E-01   0.8030303567647934E-01   0.8131314069032669E-01   0.8232323825359344E-01   0.8333333581686020E-01   0.8434344083070755E-01   0.8535353839397430E-01   0.8636364340782166E-01   0.8737374097108841E-01   0.8838384598493576E-01   0.8939394354820251E-01   0.9040404856204987E-01   0.9141414612531662E-01   0.9242425113916397E-01   0.9343434870243073E-01   0.9444445371627808E-01   0.9545455127954483E-01   0.9646465629339218E-01   0.9747475385665894E-01
   0.9848485141992569E-01   0.9949495643377304E-01   0.1005050539970398E+00  -0.5050505278632045E-03   0.5050505278632045E-03   0.1515151583589613E-02   0.2525252755731344E-02   0.3535353578627110E-02   0.4545454867184162E-02   0.5555556155741215E-02   0.6565656978636980E-02   0.7575757801532745E-02   0.8585859090089798E-02   0.9595960378646851E-02   0.1060606166720390E-01   0.1161616202443838E-01   0.1262626331299543E-01   0.1363636460155249E-01   0.1464646495878696E-01   0.1565656624734402E-01   0.1666666753590107E-01   0.1767676882445812E-01   0.1868687011301517E-01   0.1969697140157223E-01   0.2070707269012928E-01   0.2171717211604118E-01   0.2272727340459824E-01   0.2373737469315529E-01   0.2474747598171234E-01   0.2575757727026939E-01   0.2676767855882645E-01   0.2777777984738350E-01   0.2878787927329540E-01   0.2979798056185246E-01   0.3080808185040951E-01   0.3181818127632141E-01   0.3282828256487846E-01   0.3383838385343552E-01   0.3484848514199257E-01   0.3585858643054962E-01   0.3686868771910667E-01   0.3787878900766373E-01   0.3888889029622078E-01   0.3989899158477783E-01   0.4090909287333488E-01   0.4191919043660164E-01   0.4292929172515869E-01   0.4393939301371574E-01   0.4494949430227280E-01   0.4595959559082985E-01   0.4696969687938690E-01   0.4797979816794395E-01   0.4898989945650101E-01   0.5000000074505806E-01   0.5101010203361511E-01   0.5202020332217216E-01   0.5303030461072922E-01   0.5404040589928627E-01   0.5505050718784332E-01   0.5606060847640038E-01   0.5707070603966713E-01   0.5808080732822418E-01   0.5909090861678123E-01   0.6010100990533829E-01   0.6111111119389534E-01   0.6212121248245239E-01   0.6313131749629974E-01   0.6414142251014709E-01   0.6515152007341385E-01   0.6616161763668060E-01   0.6717172265052795E-01   0.6818182021379471E-01   0.6919192522764206E-01   0.7020202279090881E-01   0.7121212780475616E-01   0.7222222536802292E-01   0.7323233038187027E-01   0.7424242794513702E-01   0.7525253295898438E-01   0.7626263052225113E-01   0.7727273553609848E-01   0.7828283309936523E-01   0.7929293811321259E-01   0.8030303567647934E-01   0.8131314069032669E-01   0.8232323825359344E-01   0.8333333581686020E-01   0.8434344083070755E-01   0.8535353839397430E-01   0.8636364340782166E-01   0.8737374097108841E-01   0.8838384598493576E-01   0.8939394354820251E-01   0.9040404856204987E-01   0.9141414612531662E-01   0.9242425113916397E-01   0.9343434870243073E-01   0.9444445371627808E-01   0.9545455127954483E-01   0.9646465629339218E-01
   0.9747475385665894E-01   0.9848485141992569E-01   0.9949495643377304E-01   0.1005050539970398E+00  -0.5050505278632045E-03   0.5050505278632045E-03   0.1515151583589613E-02   0.2525252755731344E-02   0.3535353578627110E-02   0.4545454867184162E-02   0.5555556155741215E-02   0.6565656978636980E-02   0.7575757801532745E-02   0.8585859090089798E-02   0.9595960378646851E-02   0.1060606166720390E-01   0.1161616202443838E-01   0.1262626331299543E-01   0.1363636460155249E-01   0.1464646495878696E-01   0.1565656624734402E-01   0.1666666753590107E-01   0.1767676882445812E-01   0.1868687011301517E-01   0.1969697140157223E-01   0.2070707269012928E-01   0.2171717211604118E-01   0.2272727340459824E-01   0.2373737469315529E-01   0.2474747598171234E-01   0.2575757727026939E-01   0.2676767855882645E-01   0.2777777984738350E-01   0.2878787927329540E-01   0.2979798056185246E-01   0.3080808185040951E-01   0.3181818127632141E-01   0.3282828256487846E-01   0.3383838385343552E-01   0.3484848514199257E-01   0.3585858643054962E-01   0.3686868771910667E-01   0.3787878900766373E-01   0.3888889029622078E-01   0.3989899158477783E-01   0.4090909287333488E-01   0.4191919043660164E-01   0.4292929172515869E-01   0.4393939301371574E-01   0.4494949430227280E-01   0.4595959559082985E-01   0.4696969687938690E-01   0.4797979816794395E-01   0.4898989945650101E-01   0.5000000074505806E-01   0.5101010203361511E-01   0.5202020332217216E-01   0.5303030461072922E-01   0.5404040589928627E-01   0.5505050718784332E-01   0.5606060847640038E-01   0.5707070603966713E-01   0.5808080732822418E-01   0.5909090861678123E-01   0.6010100990533829E-01   0.6111111119389534E-01   0.6212121248245239E-01   0.6313131749629974E-01   0.6414142251014709E-01   0.6515152007341385E-01   0.6616161763668060E-01   0.6717172265052795E-01   0.6818182021379471E-01   0.6919192522764206E-01   0.7020202279090881E-01   0.7121212780475616E-01   0.7222222536802292E-01   0.7323233038187027E-01   0.7424242794513702E-01   0.7525253295898438E-01   0.7626263052225113E-01   0.7727273553609848E-01   0.7828283309936523E-01   0.7929293811321259E-01   0.8030303567647934E-01   0.8131314069032669E-01   0.8232323825359344E-01   0.8333333581686020E-01   0.8434344083070755E-01   0.8535353839397430E-01   0.8636364340782166E-01   0.8737374097108841E-01   0.8838384598493576E-01   0.8939394354820251E-01   0.9040404856204987E-01   0.9141414612531662E-01   0.9242425113916397E-01   0.9343434870243073E-01   0.9444445371627808E-01   0.9545455127954483E-01
   0.9646465629339218E-01   0.9747475385665894E-01   0.9848485141992569E-01   0.9949495643377304E-01   0.1005050539970398E+00  -0.5050505278632045E-03   0.5050505278632045E-03   0.1515151583589613E-02   0.2525252755731344E-02   0.3535353578627110E-02   0.4545454867184162E-02   0.5555556155741215E-02   0.6565656978636980E-02   0.7575757801532745E-02   0.8585859090089798E-02   0.9595960378646851E-02   0.1060606166720390E-01   0.1161616202443838E-01   0.1262626331299543E-01   0.1363636460155249E-01   0.1464646495878696E-01   0.1565656624734402E-01   0.1666666753590107E-01   0.1767676882445812E-01   0.1868687011301517E-01   0.1969697140157223E-01   0.2070707269012928E-01   0.2171717211604118E-01   0.2272727340459824E-01   0.2373737469315529E-01   0.2474747598171234E-01   0.2575757727026939E-01   0.2676767855882645E-01   0.2777777984738350E-01   0.2878787927329540E-01   0.2979798056185246E-01   0.3080808185040951E-01   0.3181818127632141E-01   0.3282828256487846E-01   0.3383838385343552E-01   0.3484848514199257E-01   0.3585858643054962E-01   0.3686868771910667E-01   0.3787878900766373E-01   0.3888889029622078E-01   0.3989899158477783E-01   0.4090909287333488E-01   0.4191919043660164E-01   0.4292929172515869E-01   0.4393939301371574E-01   0.4494949430227280E-01   0.4595959559082985E-01   0.4696969687938690E-01   0.4797979816794395E-01   0.4898989945650101E-01   0.5000000074505806E-01   0.5101010203361511E-01   0.5202020332217216E-01   0.5303030461072922E-01   0.5404040589928627E-01   0.5505050718784332E-01   0.5606060847640038E-01   0.5707070603966713E-01   0.5808080732822418E-01   0.5909090861678123E-01   0.6010100990533829E-01   0.6111111119389534E-01   0.6212121248245239E-01   0.6313131749629974E-01   0.6414142251014709E-01   0.6515152007341385E-01   0.6616161763668060E-01   0.6717172265052795E-01   0.6818182021379471E-01   0.6919192522764206E-01   0.7020202279090881E-01   0.7121212780475616E-01   0.7222222536802292E-01   0.7323233038187027E-01   0.7424242794513702E-01   0.7525253295898438E-01   0.7626263052225113E-01   0.7727273553609848E-01   0.7828283309936523E-01   0.7929293811321259E-01   0.8030303567647934E-01   0.8131314069032669E-01   0.8232323825359344E-01   0.8333333581686020E-01   0.8434344083070755E-01   0.8535353839397430E-01   0.8636364340782166E-01   0.8737374097108841E-01   0.8838384598493576E-01   0.8939394354820251E-01   0.9040404856204987E-01   0.9141414612531662E-01   0.9242425113916397E-01   0.9343434870243073E-01   0.9444445371627808E-01
   0.9545455127954483E-01   0.9646465629339218E-01   0.9747475385665894E-01   0.9848485141992569E-01   0.9949495643377304E-01   0.1005050539970398E+00  -0.5050505278632045E-03   0.5050505278632045E-03   0.1515151583589613E-02   0.2525252755731344E-02   0.3535353578627110E-02   0.4545454867184162E-02   0.5555556155741215E-02   0.6565656978636980E-02   0.7575757801532745E-02   0.8585859090089798E-02   0.9595960378646851E-02   0.1060606166720390E-01   0.1161616202443838E-01   0.1262626331299543E-01   0.1363636460155249E-01   0.1464646495878696E-01   0.1565656624734402E-01   0.1666666753590107E-01   0.1767676882445812E-01   0.1868687011301517E-01   0.1969697140157223E-01   0.2070707269012928E-01   0.2171717211604118E-01   0.2272727340459824E-01   0.2373737469315529E-01   0.2474747598171234E-01   0.2575757727026939E-01   0.2676767855882645E-01   0.2777777984738350E-01   0.2878787927329540E-01   0.2979798056185246E-01   0.3080808185040951E-01   0.3181818127632141E-01   0.3282828256487846E-01   0.3383838385343552E-01   0.3484848514199257E-01   0.3585858643054962E-01   0.3686868771910667E-01   0.3787878900766373E-01   0.3888889029622078E-01   0.3989899158477783E-01   0.4090909287333488E-01   0.4191919043660164E-01   0.4292929172515869E-01   0.4393939301371574E-01   0.4494949430227280E-01   0.4595959559082985E-01   0.4696969687938690E-01   0.4797979816794395E-01   0.4898989945650101E-01   0.5000000074505806E-01   0.5101010203361511E-01   0.5202020332217216E-01   0.5303030461072922E-01   0.5404040589928627E-01   0.5505050718784332E-01   0.5606060847640038E-01   0.5707070603966713E-01   0.5808080732822418E-01   0.5909090861678123E-01   0.6010100990533829E-01   0.6111111119389534E-01   0.6212121248245239E-01   0.6313131749629974E-01   0.6414142251014709E-01   0.6515152007341385E-01   0.6616161763668060E-01   0.6717172265052795E-01   0.6818182021379471E-01   0.6919192522764206E-01   0.7020202279090881E-01   0.7121212780475616E-01   0.7222222536802292E-01   0.7323233038187027E-01   0.7424242794513702E-01   0.7525253295898438E-01   0.7626263052225113E-01   0.7727273553609848E-01   0.7828283309936523E-01   0.7929293811321259E-01   0.8030303567647934E-01   0.8131314069032669E-01   0.8232323825359344E-01   0.8333333581686020E-01   0.8434344083070755E-01   0.8535353839397430E-01   0.8636364340782166E-01   0.8737374097108841E-01   0.8838384598493576E-01   0.8939394354820251E-01   0.9040404856204987E-01   0.9141414612531662E-01   0.9242425113916397E-01   0.9343434870243073E-01
   0.9444445371627808E-01   0.9545455127954483E-01   0.9646465629339218E-01   0.9747475385665894E-01   0.9848485141992569E-01   0.9949495643377304E-01   0.1005050539970398E+00  -0.5050505278632045E-03   0.5050505278632045E-03   0.1515151583589613E-02   0.2525252755731344E-02   0.3535353578627110E-02   0.4545454867184162E-02   0.5555556155741215E-02   0.6565656978636980E-02   0.7575757801532745E-02   0.8585859090089798E-02   0.9595960378646851E-02   0.1060606166720390E-01   0.1161616202443838E-01   0.1262626331299543E-01   0.1363636460155249E-01   0.1464646495878696E-01   0.1565656624734402E-01   0.1666666753590107E-01   0.1767676882445812E-01   0.1868687011301517E-01   0.1969697140157223E-01   0.2070707269012928E-01   0.2171717211604118E-01   0.2272727340459824E-01   0.2373737469315529E-01   0.2474747598171234E-01   0.2575757727026939E-01   0.2676767855882645E-01   0.2777777984738350E-01   0.2878787927329540E-01   0.2979798056185246E-01   0.3080808185040951E-01   0.3181818127632141E-01   0.3282828256487846E-01   0.3383838385343552E-01   0.3484848514199257E-01   0.3585858643054962E-01   0.3686868771910667E-01   0.3787878900766373E-01   0.3888889029622078E-01   0.3989899158477783E-01   0.4090909287333488E-01   0.4191919043660164E-01   0.4292929172515869E-01   0.4393939301371574E-01   0.4494949430227280E-01   0.4595959559082985E-01   0.4696969687938690E-01   0.4797979816794395E-01   0.4898989945650101E-01   0.5000000074505806E-01   0.5101010203361511E-01   0.5202020332217216E-01   0.5303030461072922E-01   0.5404040589928627E-01   0.5505050718784332E-01   0.5606060847640038E-01   0.5707070603966713E-01   0.5808080732822418E-01   0.5909090861678123E-01   0.6010100990533829E-01   0.6111111119389534E-01   0.6212121248245239E-01   0.6313131749629974E-01   0.6414142251014709E-01   0.6515152007341385E-01   0.6616161763668060E-01   0.6717172265052795E-01   0.6818182021379471E-01   0.6919192522764206E-01   0.7020202279090881E-01   0.7121212780475616E-01   0.7222222536802292E-01   0.7323233038187027E-01   0.7424242794513702E-01   0.7525253295898438E-01   0.7626263052225113E-01   0.7727273553609848E-01   0.7828283309936523E-01   0.7929293811321259E-01   0.8030303567647934E-01   0.8131314069032669E-01   0.8232323825359344E-01   0.8333333581686020E-01   0.8434344083070755E-01   0.8535353839397430E-01   0.8636364340782166E-01   0.8737374097108841E-01   0.8838384598493576E-01   0.8939394354820251E-01   0.9040404856204987E-01   0.9141414612531662E-01   0.9242425113916397E-01
   0.9343434870243073E-01   0.9444445371627808E-01   0.9545455127954483E-01   0.9646465629339218E-01   0.9747475385665894E-01   0.9848485141992569E-01   0.9949495643377304E-01   0.1005050539970398E+00  -0.5050505278632045E-03   0.5050505278632045E-03   0.1515151583589613E-02   0.2525252755731344E-02   0.3535353578627110E-02   0.4545454867184162E-02   0.5555556155741215E-02   0.6565656978636980E-02   0.7575757801532745E-02   0.8585859090089798E-02   0.9595960378646851E-02   0.1060606166720390E-01   0.1161616202443838E-01   0.1262626331299543E-01   0.1363636460155249E-01   0.1464646495878696E-01   0.1565656624734402E-01   0.1666666753590107E-01   0.1767676882445812E-01   0.1868687011301517E-01   0.1969697140157223E-01   0.2070707269012928E-01   0.2171717211604118E-01   0.2272727340459824E-01   0.2373737469315529E-01   0.2474747598171234E-01   0.2575757727026939E-01   0.2676767855882645E-01   0.2777777984738350E-01   0.2878787927329540E-01   0.2979798056185246E-01   0.3080808185040951E-01   0.3181818127632141E-01   0.3282828256487846E-01   0.3383838385343552E-01   0.3484848514199257E-01   0.3585858643054962E-01   0.3686868771910667E-01   0.3787878900766373E-01   0.3888889029622078E-01   0.3989899158477783E-01   0.4090909287333488E-01   0.4191919043660164E-01   0.4292929172515869E-01   0.4393939301371574E-01   0.4494949430227280E-01   0.4595959559082985E-01   0.4696969687938690E-01   0.4797979816794395E-01   0.4898989945650101E-01   0.5000000074505806E-01   0.5101010203361511E-01   0.5202020332217216E-01   0.5303030461072922E-01   0.5404040589928627E-01   0.5505050718784332E-01   0.5606060847640038E-01   0.5707070603966713E-01   0.5808080732822418E-01   0.5909090861678123E-01   0.6010100990533829E-01   0.6111111119389534E-01   0.6212121248245239E-01   0.6313131749629974E-01   0.6414142251014709E-01   0.6515152007341385E-01   0.6616161763668060E-01   0.6717172265052795E-01   0.6818182021379471E-01   0.6919192522764206E-01   0.7020202279090881E-01   0.7121212780475616E-01   0.7222222536802292E-01   0.7323233038187027E-01   0.7424242794513702E-01   0.7525253295898438E-01   0.7626263052225113E-01   0.7727273553609848E-01   0.7828283309936523E-01   0.7929293811321259E-01   0.8030303567647934E-01   0.8131314069032669E-01   0.8232323825359344E-01   0.8333333581686020E-01   0.8434344083070755E-01   0.8535353839397430E-01   0.8636364340782166E-01   0.8737374097108841E-01   0.8838384598493576E-01   0.8939394354820251E-01   0.9040404856204987E-01   0.9141414612531662E-01
   0.9242425113916397E-01   0.9343434870243073E-01   0.9444445371627808E-01   0.9545455127954483E-01   0.9646465629339218E-01   0.9747475385665894E-01   0.9848485141992569E-01   0.9949495643377304E-01   0.1005050539970398E+00  -0.5050505278632045E-03   0.5050505278632045E-03   0.1515151583589613E-02   0.2525252755731344E-02   0.3535353578627110E-02   0.4545454867184162E-02   0.5555556155741215E-02   0.6565656978636980E-02   0.7575757801532745E-02   0.8585859090089798E-02   0.9595960378646851E-02   0.1060606166720390E-01   0.1161616202443838E-01   0.1262626331299543E-01   0.1363636460155249E-01   0.1464646495878696E-01   0.1565656624734402E-01   0.1666666753590107E-01   0.1767676882445812E-01   0.1868687011301517E-01   0.1969697140157223E-01   0.2070707269012928E-01   0.2171717211604118E-01   0.2272727340459824E-01   0.2373737469315529E-01   0.2474747598171234E-01   0.2575757727026939E-01   0.2676767855882645E-01   0.2777777984738350E-01   0.2878787927329540E-01   0.2979798056185246E-01   0.3080808185040951E-01   0.3181818127632141E-01   0.3282828256487846E-01   0.3383838385343552E-01   0.3484848514199257E-01   0.3585858643054962E-01   0.3686868771910667E-01   0.3787878900766373E-01   0.3888889029622078E-01   0.3989899158477783E-01   0.4090909287333488E-01   0.4191919043660164E-01   0.4292929172515869E-01   0.4393939301371574E-01   0.4494949430227280E-01   0.4595959559082985E-01   0.4696969687938690E-01   0.4797979816794395E-01   0.4898989945650101E-01   0.5000000074505806E-01   0.5101010203361511E-01   0.5202020332217216E-01   0.5303030461072922E-01   0.5404040589928627E-01   0.5505050718784332E-01   0.5606060847640038E-01   0.5707070603966713E-01   0.5808080732822418E-01   0.5909090861678123E-01   0.6010100990533829E-01   0.6111111119389534E-01   0.6212121248245239E-01   0.6313131749629974E-01   0.6414142251014709E-01   0.6515152007341385E-01   0.6616161763668060E-01   0.6717172265052795E-01   0.6818182021379471E-01   0.6919192522764206E-01   0.7020202279090881E-01   0.7121212780475616E-01   0.7222222536802292E-01   0.7323233038187027E-01   0.7424242794513702E-01   0.7525253295898438E-01   0.7626263052225113E-01   0.7727273553609848E-01   0.7828283309936523E-01   0.7929293811321259E-01   0.8030303567647934E-01   0.8131314069032669E-01   0.8232323825359344E-01   0.8333333581686020E-01   0.8434344083070755E-01   0.8535353839397430E-01   0.8636364340782166E-01   0.8737374097108841E-01   0.8838384598493576E-01   0.8939394354820251E-01   0.9040404856204987E-01
   0.9141414612531662E-01   0.9242425113916397E-01   0.9343434870243073E-01   0.9444445371627808E-01   0.9545455127954483E-01   0.9646465629339218E-01   0.9747475385665894E-01   0.9848485141992569E-01   0.9949495643377304E-01   0.1005050539970398E+00  -0.5050505278632045E-03   0.5050505278632045E-03   0.1515151583589613E-02   0.2525252755731344E-02   0.3535353578627110E-02   0.4545454867184162E-02   0.5555556155741215E-02   0.6565656978636980E-02   0.7575757801532745E-02   0.8585859090089798E-02   0.9595960378646851E-02   0.1060606166720390E-01   0.1161616202443838E-01   0.1262626331299543E-01   0.1363636460155249E-01   0.1464646495878696E-01   0.1565656624734402E-01   0.1666666753590107E-01   0.1767676882445812E-01   0.1868687011301517E-01   0.1969697140157223E-01   0.2070707269012928E-01   0.2171717211604118E-01   0.2272727340459824E-01   0.2373737469315529E-01   0.2474747598171234E-01   0.2575757727026939E-01   0.2676767855882645E-01   0.2777777984738350E-01   0.2878787927329540E-01   0.2979798056185246E-01   0.3080808185040951E-01   0.3181818127632141E-01   0.3282828256487846E-01   0.3383838385343552E-01   0.3484848514199257E-01   0.3585858643054962E-01   0.3686868771910667E-01   0.3787878900766373E-01   0.3888889029622078E-01   0.3989899158477783E-01   0.4090909287333488E-01   0.4191919043660164E-01   0.4292929172515869E-01   0.4393939301371574E-01   0.4494949430227280E-01   0.4595959559082985E-01   0.4696969687938690E-01   0.4797979816794395E-01   0.4898989945650101E-01   0.5000000074505806E-01   0.5101010203361511E-01   0.5202020332217216E-01   0.5303030461072922E-01   0.5404040589928627E-01   0.5505050718784332E-01   0.5606060847640038E-01   0.5707070603966713E-01   0.5808080732822418E-01   0.5909090861678123E-01   0.6010100990533829E-01   0.6111111119389534E-01   0.6212121248245239E-01   0.6313131749629974E-01   0.6414142251014709E-01   0.6515152007341385E-01   0.6616161763668060E-01   0.6717172265052795E-01   0.6818182021379471E-01   0.6919192522764206E-01   0.7020202279090881E-01   0.7121212780475616E-01   0.7222222536802292E-01   0.7323233038187027E-01   0.7424242794513702E-01   0.7525253295898438E-01   0.7626263052225113E-01   0.7727273553609848E-01   0.7828283309936523E-01   0.7929293811321259E-01   0.8030303567647934E-01   0.8131314069032669E-01   0.8232323825359344E-01   0.8333333581686020E-01   0.8434344083070755E-01   0.8535353839397430E-01   0.8636364340782166E-01   0.8737374097108841E-01   0.8838384598493576E-01   0.8939394354820251E-01