 VARIABLES = "X", "Y", "U", "V", "P"
 ZONE I=         100 , J=         100 , DATAPACKING=BLOCK
   0.0000000000000000E+00   0.1010101055726409E-02   0.2020202111452818E-02   0.3030303167179227E-02   0.4040404222905636E-02   0.5050505511462688E-02   0.6060606334358454E-02   0.7070707157254219E-02   0.8080808445811272E-02   0.9090909734368324E-02   0.1010101102292538E-01   0.1111111138015985E-01   0.1212121266871691E-01   0.1313131395727396E-01   0.1414141431450844E-01   0.1515151560306549E-01   0.1616161689162254E-01   0.1717171818017960E-01   0.1818181946873665E-01   0.1919192075729370E-01   0.2020202204585075E-01   0.2121212147176266E-01   0.2222222276031971E-01   0.2323232404887676E-01   0.2424242533743382E-01   0.2525252662599087E-01   0.2626262791454792E-01   0.2727272920310497E-01   0.2828282862901688E-01   0.2929292991757393E-01   0.3030303120613098E-01   0.3131313249468803E-01   0.3232323378324509E-01   0.3333333507180214E-01   0.3434343636035919E-01   0.3535353764891624E-01   0.3636363893747330E-01   0.3737374022603035E-01   0.3838384151458740E-01   0.3939394280314445E-01   0.4040404409170151E-01   0.4141414165496826E-01   0.4242424294352531E-01   0.4343434423208237E-01   0.4444444552063942E-01   0.4545454680919647E-01   0.4646464809775352E-01   0.4747474938631058E-01   0.4848485067486763E-01   0.4949495196342468E-01   0.5050505325198174E-01   0.5151515454053879E-01   0.5252525582909584E-01   0.5353535711765289E-01   0.5454545840620995E-01   0.5555555969476700E-01   0.5656565725803375E-01   0.5757575854659081E-01   0.5858585983514786E-01   0.5959596112370491E-01   0.6060606241226196E-01   0.6161616370081902E-01   0.6262626498937607E-01   0.6363637000322342E-01   0.6464646756649017E-01   0.6565656512975693E-01   0.6666667014360428E-01   0.6767676770687103E-01   0.6868687272071838E-01   0.6969697028398514E-01   0.7070707529783249E-01   0.7171717286109924E-01   0.7272727787494659E-01   0.7373737543821335E-01   0.7474748045206070E-01   0.7575757801532745E-01   0.7676768302917480E-01   0.7777778059244156E-01   0.7878788560628891E-01   0.7979798316955566E-01   0.8080808818340302E-01   0.8181818574666977E-01   0.8282828330993652E-01   0.8383838832378387E-01   0.8484848588705063E-01   0.8585859090089798E-01   0.8686868846416473E-01   0.8787879347801208E-01   0.8888889104127884E-01   0.8989899605512619E-01   0.9090909361839294E-01   0.9191919863224030E-01   0.9292929619550705E-01   0.9393940120935440E-01   0.9494949877262115E-01   0.9595960378646851E-01   0.9696970134973526E-01   0.9797979891300201E-01   0.9898990392684937E-01   0.1000000014901161E+00
   0.0000000000000000E+00   0.1010101055726409E-02   0.2020202111452818E-02   0.3030303167179227E-02   0.4040404222905636E-02   0.5050505511462688E-02   0.6060606334358454E-02   0.7070707157254219E-02   0.8080808445811272E-02   0.9090909734368324E-02   0.1010101102292538E-01   0.1111111138015985E-01   0.1212121266871691E-01   0.1313131395727396E-01   0.1414141431450844E-01   0.1515151560306549E-01   0.1616161689162254E-01   0.1717171818017960E-01   0.1818181946873665E-01   0.1919192075729370E-01   0.2020202204585075E-01   0.2121212147176266E-01   0.2222222276031971E-01   0.2323232404887676E-01   0.2424242533743382E-01   0.2525252662599087E-01   0.2626262791454792E-01   0.2727272920310497E-01   0.2828282862901688E-01   0.2929292991757393E-01   0.3030303120613098E-01   0.3131313249468803E-01   0.3232323378324509E-01   0.3333333507180214E-01   0.3434343636035919E-01   0.3535353764891624E-01   0.3636363893747330E-01   0.3737374022603035E-01   0.3838384151458740E-01   0.3939394280314445E-01   0.4040404409170151E-01   0.4141414165496826E-01   0.4242424294352531E-01   0.4343434423208237E-01   0.4444444552063942E-01   0.4545454680919647E-01   0.4646464809775352E-01   0.4747474938631058E-01   0.4848485067486763E-01   0.4949495196342468E-01   0.5050505325198174E-01   0.5151515454053879E-01   0.5252525582909584E-01   0.5353535711765289E-01   0.5454545840620995E-01   0.5555555969476700E-01   0.5656565725803375E-01   0.5757575854659081E-01   0.5858585983514786E-01   0.5959596112370491E-01   0.6060606241226196E-01   0.6161616370081902E-01   0.6262626498937607E-01   0.6363637000322342E-01   0.6464646756649017E-01   0.6565656512975693E-01   0.6666667014360428E-01   0.6767676770687103E-01   0.6868687272071838E-01   0.6969697028398514E-01   0.7070707529783249E-01   0.7171717286109924E-01   0.7272727787494659E-01   0.7373737543821335E-01   0.7474748045206070E-01   0.7575757801532745E-01   0.7676768302917480E-01   0.7777778059244156E-01   0.7878788560628891E-01   0.7979798316955566E-01   0.8080808818340302E-01   0.8181818574666977E-01   0.8282828330993652E-01   0.8383838832378387E-01   0.8484848588705063E-01   0.8585859090089798E-01   0.8686868846416473E-01   0.8787879347801208E-01   0.8888889104127884E-01   0.8989899605512619E-01   0.9090909361839294E-01   0.9191919863224030E-01   0.9292929619550705E-01   0.9393940120935440E-01   0.9494949877262115E-01   0.9595960378646851E-01   0.9696970134973526E-01   0.9797979891300201E-01   0.9898990392684937E-01   0.1000000014901161E+00
   0.0000000000000000E+00   0.1010101055726409E-02   0.2020202111452818E-02   0.3030303167179227E-02   0.4040404222905636E-02   0.5050505511462688E-02   0.6060606334358454E-02   0.7070707157254219E-02   0.8080808445811272E-02   0.9090909734368324E-02   0.1010101102292538E-01   0.1111111138015985E-01   0.1212121266871691E-01   0.1313131395727396E-01   0.1414141431450844E-01   0.1515151560306549E-01   0.1616161689162254E-01   0.1717171818017960E-01   0.1818181946873665E-01   0.1919192075729370E-01   0.2020202204585075E-01   0.2121212147176266E-01   0.2222222276031971E-01   0.2323232404887676E-01   0.2424242533743382E-01   0.2525252662599087E-01   0.2626262791454792E-01   0.2727272920310497E-01   0.2828282862901688E-01   0.2929292991757393E-01   0.3030303120613098E-01   0.3131313249468803E-01   0.3232323378324509E-01   0.3333333507180214E-01   0.3434343636035919E-01   0.3535353764891624E-01   0.3636363893747330E-01   0.3737374022603035E-01   0.3838384151458740E-01   0.3939394280314445E-01   0.4040404409170151E-01   0.4141414165496826E-01   0.4242424294352531E-01   0.4343434423208237E-01   0.4444444552063942E-01   0.4545454680919647E-01   0.4646464809775352E-01   0.4747474938631058E-01   0.4848485067486763E-01   0.4949495196342468E-01   0.5050505325198174E-01   0.5151515454053879E-01   0.5252525582909584E-01   0.5353535711765289E-01   0.5454545840620995E-01   0.5555555969476700E-01   0.5656565725803375E-01   0.5757575854659081E-01   0.5858585983514786E-01   0.5959596112370491E-01   0.6060606241226196E-01   0.6161616370081902E-01   0.6262626498937607E-01   0.6363637000322342E-01   0.6464646756649017E-01   0.6565656512975693E-01   0.6666667014360428E-01   0.6767676770687103E-01   0.6868687272071838E-01   0.6969697028398514E-01   0.7070707529783249E-01   0.7171717286109924E-01   0.7272727787494659E-01   0.7373737543821335E-01   0.7474748045206070E-01   0.7575757801532745E-01   0.7676768302917480E-01   0.7777778059244156E-01   0.7878788560628891E-01   0.7979798316955566E-01   0.8080808818340302E-01   0.8181818574666977E-01   0.8282828330993652E-01   0.8383838832378387E-01   0.8484848588705063E-01   0.8585859090089798E-01   0.8686868846416473E-01   0.8787879347801208E-01   0.8888889104127884E-01   0.8989899605512619E-01   0.9090909361839294E-01   0.9191919863224030E-01   0.9292929619550705E-01   0.9393940120935440E-01   0.9494949877262115E-01   0.9595960378646851E-01   0.9696970134973526E-01   0.9797979891300201E-01   0.9898990392684937E-01   0.1000000014901161E+00
   0.0000000000000000E+00   0.1010101055726409E-02   0.2020202111452818E-02   0.3030303167179227E-02   0.4040404222905636E-02   0.5050505511462688E-02   0.6060606334358454E-02   0.7070707157254219E-02   0.8080808445811272E-02   0.9090909734368324E-02   0.1010101102292538E-01   0.1111111138015985E-01   0.1212121266871691E-01   0.1313131395727396E-01   0.1414141431450844E-01   0.1515151560306549E-01   0.1616161689162254E-01   0.1717171818017960E-01   0.1818181946873665E-01   0.1919192075729370E-01   0.2020202204585075E-01   0.2121212147176266E-01   0.2222222276031971E-01   0.2323232404887676E-01   0.2424242533743382E-01   0.2525252662599087E-01   0.2626262791454792E-01   0.2727272920310497E-01   0.2828282862901688E-01   0.2929292991757393E-01   0.3030303120613098E-01   0.3131313249468803E-01   0.3232323378324509E-01   0.3333333507180214E-01   0.3434343636035919E-01   0.3535353764891624E-01   0.3636363893747330E-01   0.3737374022603035E-01   0.3838384151458740E-01   0.3939394280314445E-01   0.4040404409170151E-01   0.4141414165496826E-01   0.4242424294352531E-01   0.4343434423208237E-01   0.4444444552063942E-01   0.4545454680919647E-01   0.4646464809775352E-01   0.4747474938631058E-01   0.4848485067486763E-01   0.4949495196342468E-01   0.5050505325198174E-01   0.5151515454053879E-01   0.5252525582909584E-01   0.5353535711765289E-01   0.5454545840620995E-01   0.5555555969476700E-01   0.5656565725803375E-01   0.5757575854659081E-01   0.5858585983514786E-01   0.5959596112370491E-01   0.6060606241226196E-01   0.6161616370081902E-01   0.6262626498937607E-01   0.6363637000322342E-01   0.6464646756649017E-01   0.6565656512975693E-01   0.6666667014360428E-01   0.6767676770687103E-01   0.6868687272071838E-01   0.6969697028398514E-01   0.7070707529783249E-01   0.7171717286109924E-01   0.7272727787494659E-01   0.7373737543821335E-01   0.7474748045206070E-01   0.7575757801532745E-01   0.7676768302917480E-01   0.7777778059244156E-01   0.7878788560628891E-01   0.7979798316955566E-01   0.8080808818340302E-01   0.8181818574666977E-01   0.8282828330993652E-01   0.8383838832378387E-01   0.8484848588705063E-01   0.8585859090089798E-01   0.8686868846416473E-01   0.8787879347801208E-01   0.8888889104127884E-01   0.8989899605512619E-01   0.9090909361839294E-01   0.9191919863224030E-01   0.9292929619550705E-01   0.9393940120935440E-01   0.9494949877262115E-01   0.9595960378646851E-01   0.9696970134973526E-01   0.9797979891300201E-01   0.9898990392684937E-01   0.1000000014901161E+00
   0.0000000000000000E+00   0.1010101055726409E-02   0.2020202111452818E-02   0.3030303167179227E-02   0.4040404222905636E-02   0.5050505511462688E-02   0.6060606334358454E-02   0.7070707157254219E-02   0.8080808445811272E-02   0.9090909734368324E-02   0.1010101102292538E-01   0.1111111138015985E-01   0.1212121266871691E-01   0.1313131395727396E-01   0.1414141431450844E-01   0.1515151560306549E-01   0.1616161689162254E-01   0.1717171818017960E-01   0.1818181946873665E-01   0.1919192075729370E-01   0.2020202204585075E-01   0.2121212147176266E-01   0.2222222276031971E-01   0.2323232404887676E-01   0.2424242533743382E-01   0.2525252662599087E-01   0.2626262791454792E-01   0.2727272920310497E-01   0.2828282862901688E-01   0.2929292991757393E-01   0.3030303120613098E-01   0.3131313249468803E-01   0.3232323378324509E-01   0.3333333507180214E-01   0.3434343636035919E-01   0.3535353764891624E-01   0.3636363893747330E-01   0.3737374022603035E-01   0.3838384151458740E-01   0.3939394280314445E-01   0.4040404409170151E-01   0.4141414165496826E-01   0.4242424294352531E-01   0.4343434423208237E-01   0.4444444552063942E-01   0.4545454680919647E-01   0.4646464809775352E-01   0.4747474938631058E-01   0.4848485067486763E-01   0.4949495196342468E-01   0.5050505325198174E-01   0.5151515454053879E-01   0.5252525582909584E-01   0.5353535711765289E-01   0.5454545840620995E-01   0.5555555969476700E-01   0.5656565725803375E-01   0.5757575854659081E-01   0.5858585983514786E-01   0.5959596112370491E-01   0.6060606241226196E-01   0.6161616370081902E-01   0.6262626498937607E-01   0.6363637000322342E-01   0.6464646756649017E-01   0.6565656512975693E-01   0.6666667014360428E-01   0.6767676770687103E-01   0.6868687272071838E-01   0.6969697028398514E-01   0.7070707529783249E-01   0.7171717286109924E-01   0.7272727787494659E-01   0.7373737543821335E-01   0.7474748045206070E-01   0.7575757801532745E-01   0.7676768302917480E-01   0.7777778059244156E-01   0.7878788560628891E-01   0.7979798316955566E-01   0.8080808818340302E-01   0.8181818574666977E-01   0.8282828330993652E-01   0.8383838832378387E-01   0.8484848588705063E-01   0.8585859090089798E-01   0.8686868846416473E-01   0.8787879347801208E-01   0.8888889104127884E-01   0.8989899605512619E-01   0.9090909361839294E-01   0.9191919863224030E-01   0.9292929619550705E-01   0.9393940120935440E-01   0.9494949877262115E-01   0.9595960378646851E-01   0.9696970134973526E-01   0.9797979891300201E-01   0.9898990392684937E-01   0.1000000014901161E+00
   0.0000000000000000E+00   0.1010101055726409E-02   0.2020202111452818E-02   0.3030303167179227E-02   0.4040404222905636E-02   0.5050505511462688E-02   0.6060606334358454E-02   0.7070707157254219E-02   0.8080808445811272E-02   0.9090909734368324E-02   0.1010101102292538E-01   0.1111111138015985E-01   0.1212121266871691E-01   0.1313131395727396E-01   0.1414141431450844E-01   0.1515151560306549E-01   0.1616161689162254E-01   0.1717171818017960E-01   0.1818181946873665E-01   0.1919192075729370E-01   0.2020202204585075E-01   0.2121212147176266E-01   0.2222222276031971E-01   0.2323232404887676E-01   0.2424242533743382E-01   0.2525252662599087E-01   0.2626262791454792E-01   0.2727272920310497E-01   0.2828282862901688E-01   0.2929292991757393E-01   0.3030303120613098E-01   0.3131313249468803E-01   0.3232323378324509E-01   0.3333333507180214E-01   0.3434343636035919E-01   0.3535353764891624E-01   0.3636363893747330E-01   0.3737374022603035E-01   0.3838384151458740E-01   0.3939394280314445E-01   0.4040404409170151E-01   0.4141414165496826E-01   0.4242424294352531E-01   0.4343434423208237E-01   0.4444444552063942E-01   0.4545454680919647E-01   0.4646464809775352E-01   0.4747474938631058E-01   0.4848485067486763E-01   0.4949495196342468E-01   0.5050505325198174E-01   0.5151515454053879E-01   0.5252525582909584E-01   0.5353535711765289E-01   0.5454545840620995E-01   0.5555555969476700E-01   0.5656565725803375E-01   0.5757575854659081E-01   0.5858585983514786E-01   0.5959596112370491E-01   0.6060606241226196E-01   0.6161616370081902E-01   0.6262626498937607E-01   0.6363637000322342E-01   0.6464646756649017E-01   0.6565656512975693E-01   0.6666667014360428E-01   0.6767676770687103E-01   0.6868687272071838E-01   0.6969697028398514E-01   0.7070707529783249E-01   0.7171717286109924E-01   0.7272727787494659E-01   0.7373737543821335E-01   0.7474748045206070E-01   0.7575757801532745E-01   0.7676768302917480E-01   0.7777778059244156E-01   0.7878788560628891E-01   0.7979798316955566E-01   0.8080808818340302E-01   0.8181818574666977E-01   0.8282828330993652E-01   0.8383838832378387E-01   0.8484848588705063E-01   0.8585859090089798E-01   0.8686868846416473E-01   0.8787879347801208E-01   0.8888889104127884E-01   0.8989899605512619E-01   0.9090909361839294E-01   0.9191919863224030E-01   0.9292929619550705E-01   0.9393940120935440E-01   0.9494949877262115E-01   0.9595960378646851E-01   0.9696970134973526E-01   0.9797979891300201E-01   0.9898990392684937E-01   0.1000000014901161E+00
   0.0000000000000000E+00   0.1010101055726409E-02   0.2020202111452818E-02   0.3030303167179227E-02   0.4040404222905636E-02   0.5050505511462688E-02   0.6060606334358454E-02   0.7070707157254219E-02   0.8080808445811272E-02   0.9090909734368324E-02   0.1010101102292538E-01   0.1111111138015985E-01   0.1212121266871691E-01   0.1313131395727396E-01   0.1414141431450844E-01   0.1515151560306549E-01   0.1616161689162254E-01   0.1717171818017960E-01   0.1818181946873665E-01   0.1919192075729370E-01   0.2020202204585075E-01   0.2121212147176266E-01   0.2222222276031971E-01   0.2323232404887676E-01   0.2424242533743382E-01   0.2525252662599087E-01   0.2626262791454792E-01   0.2727272920310497E-01   0.2828282862901688E-01   0.2929292991757393E-01   0.3030303120613098E-01   0.3131313249468803E-01   0.3232323378324509E-01   0.3333333507180214E-01   0.3434343636035919E-01   0.3535353764891624E-01   0.3636363893747330E-01   0.3737374022603035E-01   0.3838384151458740E-01   0.3939394280314445E-01   0.4040404409170151E-01   0.4141414165496826E-01   0.4242424294352531E-01   0.4343434423208237E-01   0.4444444552063942E-01   0.4545454680919647E-01   0.4646464809775352E-01   0.4747474938631058E-01   0.4848485067486763E-01   0.4949495196342468E-01   0.5050505325198174E-01   0.5151515454053879E-01   0.5252525582909584E-01   0.5353535711765289E-01   0.5454545840620995E-01   0.5555555969476700E-01   0.5656565725803375E-01   0.5757575854659081E-01   0.5858585983514786E-01   0.5959596112370491E-01   0.6060606241226196E-01   0.6161616370081902E-01   0.6262626498937607E-01   0.6363637000322342E-01   0.6464646756649017E-01   0.6565656512975693E-01   0.6666667014360428E-01   0.6767676770687103E-01   0.6868687272071838E-01   0.6969697028398514E-01   0.7070707529783249E-01   0.7171717286109924E-01   0.7272727787494659E-01   0.7373737543821335E-01   0.7474748045206070E-01   0.7575757801532745E-01   0.7676768302917480E-01   0.7777778059244156E-01   0.7878788560628891E-01   0.7979798316955566E-01   0.8080808818340302E-01   0.8181818574666977E-01   0.8282828330993652E-01   0.8383838832378387E-01   0.8484848588705063E-01   0.8585859090089798E-01   0.8686868846416473E-01   0.8787879347801208E-01   0.8888889104127884E-01   0.8989899605512619E-01   0.9090909361839294E-01   0.9191919863224030E-01   0.9292929619550705E-01   0.9393940120935440E-01   0.9494949877262115E-01   0.9595960378646851E-01   0.9696970134973526E-01   0.9797979891300201E-01   0.9898990392684937E-01   0.1000000014901161E+00
   0.0000000000000000E+00   0.1010101055726409E-02   0.2020202111452818E-02   0.3030303167179227E-02   0.4040404222905636E-02   0.5050505511462688E-02   0.6060606334358454E-02   0.7070707157254219E-02   0.8080808445811272E-02   0.9090909734368324E-02   0.1010101102292538E-01   0.1111111138015985E-01   0.1212121266871691E-01   0.1313131395727396E-01   0.1414141431450844E-01   0.1515151560306549E-01   0.1616161689162254E-01   0.1717171818017960E-01   0.1818181946873665E-01   0.1919192075729370E-01   0.2020202204585075E-01   0.2121212147176266E-01   0.2222222276031971E-01   0.2323232404887676E-01   0.2424242533743382E-01   0.2525252662599087E-01   0.2626262791454792E-01   0.2727272920310497E-01   0.2828282862901688E-01   0.2929292991757393E-01   0.3030303120613098E-01   0.3131313249468803E-01   0.3232323378324509E-01   0.3333333507180214E-01   0.3434343636035919E-01   0.3535353764891624E-01   0.3636363893747330E-01   0.3737374022603035E-01   0.3838384151458740E-01   0.3939394280314445E-01   0.4040404409170151E-01   0.4141414165496826E-01   0.4242424294352531E-01   0.4343434423208237E-01   0.4444444552063942E-01   0.4545454680919647E-01   0.4646464809775352E-01   0.4747474938631058E-01   0.4848485067486763E-01   0.4949495196342468E-01   0.5050505325198174E-01   0.5151515454053879E-01   0.5252525582909584E-01   0.5353535711765289E-01   0.5454545840620995E-01   0.5555555969476700E-01   0.5656565725803375E-01   0.5757575854659081E-01   0.5858585983514786E-01   0.5959596112370491E-01   0.6060606241226196E-01   0.6161616370081902E-01   0.6262626498937607E-01   0.6363637000322342E-01   0.6464646756649017E-01   0.6565656512975693E-01   0.6666667014360428E-01   0.6767676770687103E-01   0.6868687272071838E-01   0.6969697028398514E-01   0.7070707529783249E-01   0.7171717286109924E-01   0.7272727787494659E-01   0.7373737543821335E-01   0.7474748045206070E-01   0.7575757801532745E-01   0.7676768302917480E-01   0.7777778059244156E-01   0.7878788560628891E-01   0.7979798316955566E-01   0.8080808818340302E-01   0.8181818574666977E-01   0.8282828330993652E-01   0.8383838832378387E-01   0.8484848588705063E-01   0.8585859090089798E-01   0.8686868846416473E-01   0.8787879347801208E-01   0.8888889104127884E-01   0.8989899605512619E-01   0.9090909361839294E-01   0.9191919863224030E-01   0.9292929619550705E-01   0.9393940120935440E-01   0.9494949877262115E-01   0.9595960378646851E-01   0.9696970134973526E-01   0.9797979891300201E-01   0.9898990392684937E-01   0.1000000014901161E+00
   0.0000000000000000E+00   0.1010101055726409E-02   0.2020202111452818E-02   0.3030303167179227E-02   0.4040404222905636E-02   0.5050505511462688E-02   0.6060606334358454E-02   0.7070707157254219E-02   0.8080808445811272E-02   0.9090909734368324E-02   0.1010101102292538E-01   0.1111111138015985E-01   0.1212121266871691E-01   0.1313131395727396E-01   0.1414141431450844E-01   0.1515151560306549E-01   0.1616161689162254E-01   0.1717171818017960E-01   0.1818181946873665E-01   0.1919192075729370E-01   0.2020202204585075E-01   0.2121212147176266E-01   0.2222222276031971E-01   0.2323232404887676E-01   0.2424242533743382E-01   0.2525252662599087E-01   0.2626262791454792E-01   0.2727272920310497E-01   0.2828282862901688E-01   0.2929292991757393E-01   0.3030303120613098E-01   0.3131313249468803E-01   0.3232323378324509E-01   0.3333333507180214E-01   0.3434343636035919E-01   0.3535353764891624E-01   0.3636363893747330E-01   0.3737374022603035E-01   0.3838384151458740E-01   0.3939394280314445E-01   0.4040404409170151E-01   0.4141414165496826E-01   0.4242424294352531E-01   0.4343434423208237E-01   0.4444444552063942E-01   0.4545454680919647E-01   0.4646464809775352E-01   0.4747474938631058E-01   0.4848485067486763E-01   0.4949495196342468E-01   0.5050505325198174E-01   0.5151515454053879E-01   0.5252525582909584E-01   0.5353535711765289E-01   0.5454545840620995E-01   0.5555555969476700E-01   0.5656565725803375E-01   0.5757575854659081E-01   0.5858585983514786E-01   0.5959596112370491E-01   0.6060606241226196E-01   0.6161616370081902E-01   0.6262626498937607E-01   0.6363637000322342E-01   0.6464646756649017E-01   0.6565656512975693E-01   0.6666667014360428E-01   0.6767676770687103E-01   0.6868687272071838E-01   0.6969697028398514E-01   0.7070707529783249E-01   0.7171717286109924E-01   0.7272727787494659E-01   0.7373737543821335E-01   0.7474748045206070E-01   0.7575757801532745E-01   0.7676768302917480E-01   0.7777778059244156E-01   0.7878788560628891E-01   0.7979798316955566E-01   0.8080808818340302E-01   0.8181818574666977E-01   0.8282828330993652E-01   0.8383838832378387E-01   0.8484848588705063E-01   0.8585859090089798E-01   0.8686868846416473E-01   0.8787879347801208E-01   0.8888889104127884E-01   0.8989899605512619E-01   0.9090909361839294E-01   0.9191919863224030E-01   0.9292929619550705E-01   0.9393940120935440E-01   0.9494949877262115E-01   0.9595960378646851E-01   0.9696970134973526E-01   0.9797979891300201E-01   0.9898990392684937E-01   0.1000000014901161E+00
   0.0000000000000000E+00   0.1010101055726409E-02   0.2020202111452818E-02   0.3030303167179227E-02   0.4040404222905636E-02   0.5050505511462688E-02   0.6060606334358454E-02   0.7070707157254219E-02   0.8080808445811272E-02   0.9090909734368324E-02   0.1010101102292538E-01   0.1111111138015985E-01   0.1212121266871691E-01   0.1313131395727396E-01   0.1414141431450844E-01   0.1515151560306549E-01   0.1616161689162254E-01   0.1717171818017960E-01   0.1818181946873665E-01   0.1919192075729370E-01   0.2020202204585075E-01   0.2121212147176266E-01   0.2222222276031971E-01   0.2323232404887676E-01   0.2424242533743382E-01   0.2525252662599087E-01   0.2626262791454792E-01   0.2727272920310497E-01   0.2828282862901688E-01   0.2929292991757393E-01   0.3030303120613098E-01   0.3131313249468803E-01   0.3232323378324509E-01   0.3333333507180214E-01   0.3434343636035919E-01   0.3535353764891624E-01   0.3636363893747330E-01   0.3737374022603035E-01   0.3838384151458740E-01   0.3939394280314445E-01   0.4040404409170151E-01   0.4141414165496826E-01   0.4242424294352531E-01   0.4343434423208237E-01   0.4444444552063942E-01   0.4545454680919647E-01   0.4646464809775352E-01   0.4747474938631058E-01   0.4848485067486763E-01   0.4949495196342468E-01   0.5050505325198174E-01   0.5151515454053879E-01   0.5252525582909584E-01   0.5353535711765289E-01   0.5454545840620995E-01   0.5555555969476700E-01   0.5656565725803375E-01   0.5757575854659081E-01   0.5858585983514786E-01   0.5959596112370491E-01   0.6060606241226196E-01   0.6161616370081902E-01   0.6262626498937607E-01   0.6363637000322342E-01   0.6464646756649017E-01   0.6565656512975693E-01   0.6666667014360428E-01   0.6767676770687103E-01   0.6868687272071838E-01   0.6969697028398514E-01   0.7070707529783249E-01   0.7171717286109924E-01   0.7272727787494659E-01   0.7373737543821335E-01   0.7474748045206070E-01   0.7575757801532745E-01   0.7676768302917480E-01   0.7777778059244156E-01   0.7878788560628891E-01   0.7979798316955566E-01   0.8080808818340302E-01   0.8181818574666977E-01   0.8282828330993652E-01   0.8383838832378387E-01   0.8484848588705063E-01   0.8585859090089798E-01   0.8686868846416473E-01   0.8787879347801208E-01   0.8888889104127884E-01   0.8989899605512619E-01   0.9090909361839294E-01   0.9191919863224030E-01   0.9292929619550705E-01   0.9393940120935440E-01   0.9494949877262115E-01   0.9595960378646851E-01   0.9696970134973526E-01   0.9797979891300201E-01   0.9898990392684937E-01   0.1000000014901161E+00
   0.0000000000000000E+00   0.1010101055726409E-02   0.2020202111452818E-02   0.3030303167179227E-02   0.4040404222905636E-02   0.5050505511462688E-02   0.6060606334358454E-02   0.7070707157254219E-02   0.8080808445811272E-02   0.9090909734368324E-02   0.1010101102292538E-01   0.1111111138015985E-01   0.1212121266871691E-01   0.1313131395727396E-01   0.1414141431450844E-01   0.1515151560306549E-01   0.1616161689162254E-01   0.1717171818017960E-01   0.1818181946873665E-01   0.1919192075729370E-01   0.2020202204585075E-01   0.2121212147176266E-01   0.2222222276031971E-01   0.2323232404887676E-01   0.2424242533743382E-01   0.2525252662599087E-01   0.2626262791454792E-01   0.2727272920310497E-01   0.2828282862901688E-01   0.2929292991757393E-01   0.3030303120613098E-01   0.3131313249468803E-01   0.3232323378324509E-01   0.3333333507180214E-01   0.3434343636035919E-01   0.3535353764891624E-01   0.3636363893747330E-01   0.3737374022603035E-01   0.3838384151458740E-01   0.3939394280314445E-01   0.4040404409170151E-01   0.4141414165496826E-01   0.4242424294352531E-01   0.4343434423208237E-01   0.4444444552063942E-01   0.4545454680919647E-01   0.4646464809775352E-01   0.4747474938631058E-01   0.4848485067486763E-01   0.4949495196342468E-01   0.5050505325198174E-01   0.5151515454053879E-01   0.5252525582909584E-01   0.5353535711765289E-01   0.5454545840620995E-01   0.5555555969476700E-01   0.5656565725803375E-01   0.5757575854659081E-01   0.5858585983514786E-01   0.5959596112370491E-01   0.6060606241226196E-01   0.6161616370081902E-01   0.6262626498937607E-01   0.6363637000322342E-01   0.6464646756649017E-01   0.6565656512975693E-01   0.6666667014360428E-01   0.6767676770687103E-01   0.6868687272071838E-01   0.6969697028398514E-01   0.7070707529783249E-01   0.7171717286109924E-01   0.7272727787494659E-01   0.7373737543821335E-01   0.7474748045206070E-01   0.7575757801532745E-01   0.7676768302917480E-01   0.7777778059244156E-01   0.7878788560628891E-01   0.7979798316955566E-01   0.8080808818340302E-01   0.8181818574666977E-01   0.8282828330993652E-01   0.8383838832378387E-01   0.8484848588705063E-01   0.8585859090089798E-01   0.8686868846416473E-01   0.8787879347801208E-01   0.8888889104127884E-01   0.8989899605512619E-01   0.9090909361839294E-01   0.9191919863224030E-01   0.9292929619550705E-01   0.9393940120935440E-01   0.9494949877262115E-01   0.9595960378646851E-01   0.9696970134973526E-01   0.9797979891300201E-01   0.9898990392684937E-01   0.1000000014901161E+00